LAMMPS data file for MOL

26 atoms
25 bonds
48 angles
69 dihedrals
0 impropers

5 atom types
5 bond types
9 angle types
6 dihedral types

-1.876 1.876 xlo xhi
-2.81 2.81 ylo yhi
-4.537 4.537 zlo zhi

Masses

1 12.01
2 1.008
3 14.01
4 1.008
5 1.008

Pair Coeffs

1 0.10939999991572773 3.399669508450741
2 0.01570000002623629 2.649532787260222
3 0.16999999991766696 3.2499985240310356
4 0.015700000004219245 1.069078461720523
5 0.015700000062726104 1.9599771790073583

Bond Coeffs

1 330.6 1.0969
2 300.9 1.5375
3 373.2 1.0304
4 283.3 1.511
5 338.7 1.091

Angle Coeffs

1 62.86 111.51004761858671
2 46.34 109.80004705760963
3 39.4 107.5800458769885
4 64.18 114.21004877574104
5 48.65 108.01004611857184
6 45.85 110.11004701858076
7 40.58 108.3000464147461
8 46.2 110.56004749791872
9 39.22 109.75004732265974

Dihedral Coeffs

1 0.16 0 3
2 0.2 180 1
3 0.25 180 2
4 0.18 0 3
5 0.155555556 0 3
6 0.15 0 3

Atoms

1 0 1 -0.026196999994512218 -0.19 0.083 -0.742
2 0 2 0.033187999978048874 -1.068 -0.535 -0.963
3 0 2 0.033187999978048874 0.631 -0.316 -1.352
4 0 3 -0.3617139998792688 -0.013 1.578 -3.615
5 0 4 0.3366059997914643 -0.788 -2.205 3.501
6 0 4 0.3366059997914643 -0.416 1.771 -4.537
7 0 4 0.3366059997914643 0.346 0.62 -3.639
8 0 1 -0.07642799975853762 0.489 -1.547 1.109
9 0 2 0.08367999978048875 1.251 -1.942 0.429
10 0 2 0.08367999978048875 -0.394 -2.178 0.949
11 0 1 -0.061665999901219924 1.051 -1.784 2.509
12 0 5 0.14122600001097554 1.398 -2.81 2.628
13 0 5 0.14122600001097554 1.876 -1.111 2.747
14 0 1 -0.026196999994512218 0.19 -0.083 0.742
15 0 2 0.033187999978048874 1.068 0.535 0.963
16 0 2 0.033187999978048874 -0.631 0.316 1.352
17 0 3 -0.3617139998792688 0.013 -1.578 3.615
18 0 4 0.3366059997914643 0.788 2.205 -3.501
19 0 4 0.3366059997914643 0.416 -1.771 4.537
20 0 4 0.3366059997914643 -0.346 -0.62 3.639
21 0 1 -0.07642799975853762 -0.489 1.547 -1.109
22 0 2 0.08367999978048875 -1.251 1.942 -0.429
23 0 2 0.08367999978048875 0.394 2.178 -0.949
24 0 1 -0.061665999901219924 -1.051 1.784 -2.509
25 0 5 0.14122600001097554 -1.398 2.81 -2.628
26 0 5 0.14122600001097554 -1.876 1.111 -2.747

Bonds

1 1 1 2
2 1 1 3
3 3 4 6
4 3 4 7
5 3 4 18
6 3 5 17
7 1 8 9
8 1 8 10
9 5 11 12
10 5 11 13
11 1 14 15
12 1 14 16
13 3 17 19
14 3 17 20
15 1 21 22
16 1 21 23
17 5 24 25
18 5 24 26
19 2 1 14
20 2 1 21
21 4 4 24
22 2 8 11
23 2 8 14
24 4 11 17
25 2 21 24

Angles

1 2 1 14 15
2 2 1 14 16
3 2 1 21 22
4 2 1 21 23
5 3 2 1 3
6 2 2 1 14
7 2 2 1 21
8 2 3 1 14
9 2 3 1 21
10 5 4 24 25
11 5 4 24 26
12 6 5 17 11
13 7 5 17 19
14 7 5 17 20
15 7 6 4 7
16 7 6 4 18
17 6 6 4 24
18 7 7 4 18
19 6 7 4 24
20 8 8 11 12
21 8 8 11 13
22 2 8 14 15
23 2 8 14 16
24 3 9 8 10
25 2 9 8 11
26 2 9 8 14
27 2 10 8 11
28 2 10 8 14
29 6 11 17 19
30 6 11 17 20
31 9 12 11 13
32 5 12 11 17
33 5 13 11 17
34 3 15 14 16
35 6 18 4 24
36 7 19 17 20
37 8 21 24 25
38 8 21 24 26
39 3 22 21 23
40 2 22 21 24
41 2 23 21 24
42 9 25 24 26
43 1 1 14 8
44 1 1 21 24
45 4 4 24 21
46 4 8 11 17
47 1 11 8 14
48 1 14 1 21

Dihedrals

1 1 1 14 8 9
2 1 1 14 8 10
3 5 1 21 24 25
4 5 1 21 24 26
5 1 2 1 14 8
6 6 2 1 14 15
7 6 2 1 14 16
8 6 2 1 21 22
9 6 2 1 21 23
10 1 2 1 21 24
11 1 3 1 14 8
12 6 3 1 14 15
13 6 3 1 14 16
14 6 3 1 21 22
15 6 3 1 21 23
16 1 3 1 21 24
17 5 4 24 21 22
18 5 4 24 21 23
19 5 5 17 11 8
20 5 5 17 11 12
21 5 5 17 11 13
22 5 6 4 24 21
23 5 6 4 24 25
24 5 6 4 24 26
25 5 7 4 24 21
26 5 7 4 24 25
27 5 7 4 24 26
28 5 8 11 17 19
29 5 8 11 17 20
30 5 9 8 11 12
31 5 9 8 11 13
32 5 9 8 11 17
33 6 9 8 14 15
34 6 9 8 14 16
35 5 10 8 11 12
36 5 10 8 11 13
37 5 10 8 11 17
38 6 10 8 14 15
39 6 10 8 14 16
40 1 11 8 14 15
41 1 11 8 14 16
42 5 12 11 8 14
43 5 12 11 17 19
44 5 12 11 17 20
45 5 13 11 8 14
46 5 13 11 17 19
47 5 13 11 17 20
48 1 14 1 21 22
49 1 14 1 21 23
50 1 21 1 14 15
51 1 21 1 14 16
52 5 18 4 24 21
53 5 18 4 24 25
54 5 18 4 24 26
55 5 22 21 24 25
56 5 22 21 24 26
57 5 23 21 24 25
58 5 23 21 24 26
59 2 1 14 8 11
60 3 1 14 8 11
61 4 1 14 8 11
62 5 1 21 24 4
63 2 21 1 14 8
64 3 21 1 14 8
65 4 21 1 14 8
66 2 14 1 21 24
67 3 14 1 21 24
68 4 14 1 21 24
69 5 14 8 11 17

