LAMMPS data file for MOL

18 atoms
18 bonds
30 angles
45 dihedrals
0 impropers

6 atom types
6 bond types
9 angle types
4 dihedral types

-3.397 3.669 xlo xhi
-2.158 2.157 ylo yhi
-1.181 1.243 zlo zhi

Masses

1 14.01
2 1.008
3 12.01
4 1.008
5 12.01
6 1.008

Pair Coeffs

1 0.16999999991766696 3.2499985240310356
2 0.015700000004219245 1.069078461720523
3 0.10939999991572773 3.399669508450741
4 0.015700000062726104 1.9599771790073583
5 0.08600000012835884 3.399669507944831
6 0.015000000064220668 2.5996424587350853

Bond Coeffs

1 373.2 1.0304
2 283.3 1.511
3 338.7 1.091
4 321.0 1.5156
5 461.1 1.3984
6 345.8 1.086

Angle Coeffs

1 48.65 108.01004611857184
2 64.77 113.80004877191234
3 40.58 108.3000464147461
4 45.85 110.11004701858076
5 63.53 120.77005170178906
6 39.22 109.75004732265974
7 46.62 111.45004805123841
8 48.18 119.88005114846936
9 66.62 120.0200516668362

Dihedral Coeffs

1 0.0 0 2
2 0.155555556 0 3
3 3.625 180 2
4 1.1 180 2

Atoms

1 0 1 -0.3992499997256109 2.656 0.001 0.682
2 0 2 0.3302929997859765 3.669 0.0 0.529
3 0 2 0.3302929997859765 2.417 -0.821 1.243
4 0 2 0.3302929997859765 2.417 0.823 1.241
5 0 3 -0.042853999989024436 1.853 -0.001 -0.642
6 0 4 0.13823999989024435 2.185 0.886 -1.181
7 0 4 0.13823999989024435 2.185 -0.889 -1.179
8 0 5 0.010242000021951124 0.387 -0.0 -0.348
9 0 5 -0.13870700021402346 -0.302 -1.212 -0.2
10 0 6 0.13439000016463343 0.213 -2.158 -0.346
11 0 5 -0.11338799986829325 -1.66 -1.209 0.101
12 0 6 0.15526099998353665 -2.192 -2.148 0.203
13 0 5 -0.05669999999999999 -2.337 0.0 0.254
14 0 6 0.14609100003841446 -3.397 0.001 0.481
15 0 5 -0.11338799986829325 -1.659 1.209 0.101
16 0 6 0.15526099998353665 -2.191 2.149 0.202
17 0 5 -0.13870700021402346 -0.301 1.211 -0.201
18 0 6 0.13439000016463343 0.214 2.157 -0.347

Bonds

1 1 1 2
2 1 1 3
3 1 1 4
4 3 5 6
5 3 5 7
6 6 9 10
7 6 11 12
8 6 13 14
9 6 15 16
10 6 17 18
11 2 1 5
12 4 5 8
13 5 8 9
14 5 8 17
15 5 9 11
16 5 11 13
17 5 13 15
18 5 15 17

Angles

1 1 1 5 6
2 1 1 5 7
3 3 2 1 3
4 3 2 1 4
5 4 2 1 5
6 3 3 1 4
7 4 3 1 5
8 4 4 1 5
9 6 6 5 7
10 7 6 5 8
11 7 7 5 8
12 8 8 9 10
13 8 8 17 18
14 8 9 11 12
15 8 10 9 11
16 8 11 13 14
17 8 12 11 13
18 8 13 15 16
19 8 14 13 15
20 8 15 17 18
21 8 16 15 17
22 2 1 5 8
23 5 5 8 9
24 5 5 8 17
25 9 8 9 11
26 9 8 17 15
27 9 9 8 17
28 9 9 11 13
29 9 11 13 15
30 9 13 15 17

Dihedrals

1 2 2 1 5 6
2 2 2 1 5 7
3 2 2 1 5 8
4 2 3 1 5 6
5 2 3 1 5 7
6 2 3 1 5 8
7 2 4 1 5 6
8 2 4 1 5 7
9 2 4 1 5 8
10 3 5 8 9 10
11 3 5 8 17 18
12 1 6 5 8 9
13 1 6 5 8 17
14 1 7 5 8 9
15 1 7 5 8 17
16 3 8 9 11 12
17 3 8 17 15 16
18 3 9 8 17 18
19 3 9 11 13 14
20 3 10 9 8 17
21 3 10 9 11 12
22 3 10 9 11 13
23 3 11 13 15 16
24 3 12 11 13 14
25 3 12 11 13 15
26 3 13 15 17 18
27 3 14 13 15 16
28 3 14 13 15 17
29 3 16 15 17 18
30 4 8 11 9 10
31 4 9 13 11 12
32 4 11 15 13 14
33 4 13 17 15 16
34 4 8 15 17 18
35 1 1 5 8 9
36 1 1 5 8 17
37 3 5 8 9 11
38 3 5 8 17 15
39 3 8 9 11 13
40 3 8 17 15 13
41 3 9 8 17 15
42 3 9 11 13 15
43 3 11 9 8 17
44 3 11 13 15 17
45 4 9 17 8 5

