LAMMPS data file for MOL

17 atoms
16 bonds
30 angles
38 dihedrals
0 impropers

5 atom types
5 bond types
9 angle types
6 dihedral types

-3.317 3.484 xlo xhi
-0.975 1.185 ylo yhi
-0.887 0.886 zlo zhi

Masses

1 14.01
2 12.01
3 1.008
4 1.008
5 1.008

Pair Coeffs

1 0.16999999991766696 3.2499985240310356
2 0.10939999991572773 3.399669508450741
3 0.01570000002623629 2.649532787260222
4 0.015700000062726104 1.9599771790073583
5 0.015700000004219245 1.069078461720523

Bond Coeffs

1 283.3 1.511
2 373.2 1.0304
3 300.9 1.5375
4 330.6 1.0969
5 338.7 1.091

Angle Coeffs

1 64.18 114.21004877574104
2 48.65 108.01004611857184
3 46.2 110.56004749791872
4 62.86 111.51004761858671
5 46.34 109.80004705760963
6 45.85 110.11004701858076
7 39.4 107.5800458769885
8 39.22 109.75004732265974
9 40.58 108.3000464147461

Dihedral Coeffs

1 0.155555556 0 3
2 0.16 0 3
3 0.2 180 1
4 0.25 180 2
5 0.18 0 3
6 0.15 0 3

Atoms

1 0 1 -0.2838560000658534 -2.468 -0.307 0.0
2 0 2 -0.07756500002743891 0.046 -0.323 -0.0
3 0 2 0.0054020000000000006 -1.199 0.551 -0.0
4 0 2 0.006605000027438908 1.327 0.529 0.0
5 0 2 -0.10526199985731767 2.593 -0.33 -0.0
6 0 3 0.04994699999451222 0.045 -0.974 -0.882
7 0 3 0.04994699999451222 0.045 -0.975 0.882
8 0 4 0.09885299989573215 -1.267 1.183 0.886
9 0 4 0.09885299989573215 -1.267 1.182 -0.887
10 0 3 0.03848300000548778 1.327 1.185 0.878
11 0 3 0.03848300000548778 1.327 1.185 -0.877
12 0 5 0.30706900007134114 -2.501 -0.912 0.824
13 0 5 0.30706900007134114 -2.501 -0.914 -0.823
14 0 5 0.30706900007134114 -3.317 0.264 -0.001
15 0 3 0.05296799997804887 2.645 -0.971 -0.884
16 0 3 0.05296799997804887 2.645 -0.971 0.884
17 0 3 0.05296799997804887 3.484 0.301 -0.0

Bonds

1 2 1 12
2 2 1 13
3 2 1 14
4 4 2 6
5 4 2 7
6 5 3 8
7 5 3 9
8 4 4 10
9 4 4 11
10 4 5 15
11 4 5 16
12 4 5 17
13 1 1 3
14 3 2 3
15 3 2 4
16 3 4 5

Angles

1 2 1 3 8
2 2 1 3 9
3 3 2 3 8
4 3 2 3 9
5 5 2 4 10
6 5 2 4 11
7 6 3 1 12
8 6 3 1 13
9 6 3 1 14
10 5 3 2 6
11 5 3 2 7
12 5 4 2 6
13 5 4 2 7
14 5 4 5 15
15 5 4 5 16
16 5 4 5 17
17 5 5 4 10
18 5 5 4 11
19 7 6 2 7
20 8 8 3 9
21 7 10 4 11
22 9 12 1 13
23 9 12 1 14
24 9 13 1 14
25 7 15 5 16
26 7 15 5 17
27 7 16 5 17
28 1 1 3 2
29 4 2 4 5
30 4 3 2 4

Dihedrals

1 1 1 3 2 6
2 1 1 3 2 7
3 1 12 1 3 2
4 1 13 1 3 2
5 1 14 1 3 2
6 2 2 4 5 15
7 2 2 4 5 16
8 2 2 4 5 17
9 2 3 2 4 10
10 2 3 2 4 11
11 1 4 2 3 8
12 1 4 2 3 9
13 2 5 4 2 6
14 2 5 4 2 7
15 1 6 2 3 8
16 1 6 2 3 9
17 6 6 2 4 10
18 6 6 2 4 11
19 1 7 2 3 8
20 1 7 2 3 9
21 6 7 2 4 10
22 6 7 2 4 11
23 1 12 1 3 8
24 1 13 1 3 8
25 1 14 1 3 8
26 1 12 1 3 9
27 1 13 1 3 9
28 1 14 1 3 9
29 6 10 4 5 15
30 6 10 4 5 16
31 6 10 4 5 17
32 6 11 4 5 15
33 6 11 4 5 16
34 6 11 4 5 17
35 1 1 3 2 4
36 3 3 2 4 5
37 4 3 2 4 5
38 5 3 2 4 5

