LAMMPS data file for MOL

24 atoms
24 bonds
48 angles
78 dihedrals
0 impropers

5 atom types
5 bond types
10 angle types
6 dihedral types

-3.294 3.926 xlo xhi
-2.306 2.361 ylo yhi
-1.557 1.478 zlo zhi

Masses

1 14.01
2 12.01
3 1.008
4 1.008
5 1.008

Pair Coeffs

1 0.16999999991766696 3.2499985240310356
2 0.10939999991572773 3.399669508450741
3 0.015700000062726104 1.9599771790073583
4 0.01570000002623629 2.649532787260222
5 0.015700000004219245 1.069078461720523

Bond Coeffs

1 283.3 1.511
2 373.2 1.0304
3 300.9 1.5375
4 338.7 1.091
5 330.6 1.0969

Angle Coeffs

1 64.18 114.21004877574104
2 48.65 108.01004611857184
3 62.86 111.51004761858671
4 46.34 109.80004705760963
5 62.62 109.6600471122006
6 45.85 110.11004701858076
7 46.2 110.56004749791872
8 39.22 109.75004732265974
9 39.4 107.5800458769885
10 40.58 108.3000464147461

Dihedral Coeffs

1 0.155555556 0 3
2 0.2 180 1
3 0.25 180 2
4 0.18 0 3
5 0.16 0 3
6 0.15 0 3

Atoms

1 0 1 -0.25892900018109677 2.993 0.298 -0.319
2 0 2 -0.04660699999451222 -2.216 0.407 -0.503
3 0 2 -0.051573000005487785 0.097 1.198 0.19
4 0 2 -0.09119800025243795 1.931 -0.62 0.272
5 0 2 -0.0648409997640254 0.515 -0.248 -0.197
6 0 2 -0.014665000027438908 -1.429 1.337 0.404
7 0 2 -0.14696000010975563 -0.469 -1.272 0.396
8 0 1 -0.13060099987378104 -1.869 -1.056 -0.168
9 0 3 0.11832100009329229 -1.975 0.55 -1.557
10 0 3 0.11832100009329229 -3.294 0.508 -0.384
11 0 4 0.0572590002359746 0.414 1.893 -0.593
12 0 4 0.0572590002359746 0.597 1.506 1.114
13 0 3 0.1518929997859765 2.216 -1.629 -0.027
14 0 3 0.1518929997859765 2.037 -0.537 1.355
15 0 4 0.1071 0.487 -0.36 -1.289
16 0 4 0.09458899974207427 -1.695 1.15 1.448
17 0 4 0.09458899974207427 -1.747 2.361 0.201
18 0 3 0.14393599984634212 -0.545 -1.163 1.478
19 0 3 0.14393599984634212 -0.197 -2.306 0.178
20 0 5 0.32012100009329225 3.023 0.253 -1.343
21 0 5 0.32012100009329225 3.926 0.035 0.016
22 0 5 0.32012100009329225 2.851 1.279 -0.059
23 0 5 0.30295699993963443 -2.001 -1.63 -1.005
24 0 5 0.30295699993963443 -2.544 -1.415 0.512

Bonds

1 2 1 20
2 2 1 21
3 2 1 22
4 4 2 9
5 4 2 10
6 5 3 11
7 5 3 12
8 4 4 13
9 4 4 14
10 5 5 15
11 5 6 16
12 5 6 17
13 4 7 18
14 4 7 19
15 2 8 23
16 2 8 24
17 1 1 4
18 3 2 6
19 1 2 8
20 3 3 5
21 3 3 6
22 3 4 5
23 3 5 7
24 1 7 8

Angles

1 2 1 4 13
2 2 1 4 14
3 4 2 6 16
4 4 2 6 17
5 6 2 8 23
6 6 2 8 24
7 4 3 5 15
8 4 3 6 16
9 4 3 6 17
10 6 4 1 20
11 6 4 1 21
12 6 4 1 22
13 4 4 5 15
14 4 5 3 11
15 4 5 3 12
16 7 5 4 13
17 7 5 4 14
18 7 5 7 18
19 7 5 7 19
20 7 6 2 9
21 7 6 2 10
22 4 6 3 11
23 4 6 3 12
24 4 7 5 15
25 6 7 8 23
26 6 7 8 24
27 2 8 2 9
28 2 8 2 10
29 2 8 7 18
30 2 8 7 19
31 8 9 2 10
32 9 11 3 12
33 8 13 4 14
34 9 16 6 17
35 8 18 7 19
36 10 20 1 21
37 10 20 1 22
38 10 21 1 22
39 10 23 8 24
40 1 1 4 5
41 3 2 6 3
42 5 2 8 7
43 3 3 5 4
44 3 3 5 7
45 3 4 5 7
46 3 5 3 6
47 1 5 7 8
48 1 6 2 8

Dihedrals

1 1 1 4 5 15
2 5 2 6 3 11
3 5 2 6 3 12
4 1 2 8 7 18
5 1 2 8 7 19
6 1 3 5 4 13
7 1 3 5 4 14
8 1 3 5 7 18
9 1 3 5 7 19
10 1 3 6 2 9
11 1 3 6 2 10
12 5 4 5 3 11
13 5 4 5 3 12
14 1 4 5 7 18
15 1 4 5 7 19
16 5 5 3 6 16
17 5 5 3 6 17
18 1 20 1 4 5
19 1 21 1 4 5
20 1 22 1 4 5
21 1 5 7 8 23
22 1 5 7 8 24
23 1 6 2 8 23
24 1 6 2 8 24
25 5 6 3 5 15
26 5 7 5 3 11
27 5 7 5 3 12
28 1 7 5 4 13
29 1 7 5 4 14
30 1 7 8 2 9
31 1 7 8 2 10
32 1 8 2 6 16
33 1 8 2 6 17
34 1 8 7 5 15
35 1 9 2 6 16
36 1 9 2 6 17
37 1 9 2 8 23
38 1 9 2 8 24
39 1 10 2 6 16
40 1 10 2 6 17
41 1 10 2 8 23
42 1 10 2 8 24
43 6 11 3 5 15
44 6 11 3 6 16
45 6 11 3 6 17
46 6 12 3 5 15
47 6 12 3 6 16
48 6 12 3 6 17
49 1 20 1 4 13
50 1 21 1 4 13
51 1 22 1 4 13
52 1 13 4 5 15
53 1 20 1 4 14
54 1 21 1 4 14
55 1 22 1 4 14
56 1 14 4 5 15
57 1 15 5 7 18
58 1 15 5 7 19
59 1 18 7 8 23
60 1 18 7 8 24
61 1 19 7 8 23
62 1 19 7 8 24
63 1 1 4 5 3
64 1 1 4 5 7
65 2 2 6 3 5
66 3 2 6 3 5
67 4 2 6 3 5
68 1 2 8 7 5
69 1 3 5 7 8
70 1 3 6 2 8
71 2 4 5 3 6
72 3 4 5 3 6
73 4 4 5 3 6
74 1 4 5 7 8
75 1 6 2 8 7
76 2 6 3 5 7
77 3 6 3 5 7
78 4 6 3 5 7

