LAMMPS data file for MOL

20 atoms
19 bonds
36 angles
45 dihedrals
0 impropers

4 atom types
4 bond types
7 angle types
1 dihedral types

-3.537 3.098 xlo xhi
-1.998 2.108 ylo yhi
-1.34 1.284 zlo zhi

Masses

1 14.01
2 1.008
3 12.01
4 1.008

Pair Coeffs

1 0.16999999991766696 3.2499985240310356
2 0.015700000004219245 1.069078461720523
3 0.10939999991572773 3.399669508450741
4 0.015700000062726104 1.9599771790073583

Bond Coeffs

1 373.2 1.0304
2 283.3 1.511
3 338.7 1.091
4 300.9 1.5375

Angle Coeffs

1 64.18 114.21004877574104
2 48.65 108.01004611857184
3 40.58 108.3000464147461
4 45.85 110.11004701858076
5 62.62 109.6600471122006
6 46.2 110.56004749791872
7 39.22 109.75004732265974

Dihedral Coeffs

1 0.155555556 0 3

Atoms

1 0 1 -0.29282299984085436 -2.764 -0.216 0.111
2 0 2 0.3413409997640254 -2.87 -0.362 1.121
3 0 2 0.3413409997640254 -3.537 0.396 -0.177
4 0 2 0.3413409997640254 -2.923 -1.121 -0.348
5 0 3 -0.30143499997256107 -0.266 -0.494 0.18
6 0 4 0.20143499997256106 -0.196 -0.556 1.268
7 0 4 0.20143499997256106 -0.392 -1.505 -0.211
8 0 3 -0.22883300022499906 2.159 -1.032 0.036
9 0 4 0.1805940002085357 1.885 -1.998 -0.384
10 0 4 0.1805940002085357 2.247 -1.093 1.119
11 0 3 -0.22883300022499906 1.466 1.363 0.195
12 0 4 0.1805940002085357 1.468 1.349 1.284
13 0 4 0.1805940002085357 0.768 2.108 -0.182
14 0 1 -0.12292500013719453 1.082 -0.013 -0.31
15 0 2 0.368816000175609 1.054 0.035 -1.332
16 0 3 0.04868499997256109 -1.429 0.412 -0.259
17 0 4 0.12344700010426785 -1.414 1.386 0.229
18 0 4 0.12344700010426785 -1.456 0.562 -1.34
19 0 4 0.1805940002085357 2.464 1.594 -0.171
20 0 4 0.1805940002085357 3.098 -0.692 -0.396

Bonds

1 1 1 2
2 1 1 3
3 1 1 4
4 3 5 6
5 3 5 7
6 3 8 9
7 3 8 10
8 3 8 20
9 3 11 12
10 3 11 13
11 3 11 19
12 1 14 15
13 3 16 17
14 3 16 18
15 2 1 16
16 2 5 14
17 4 5 16
18 2 8 14
19 2 11 14

Angles

1 2 1 16 17
2 2 1 16 18
3 3 2 1 3
4 3 2 1 4
5 4 2 1 16
6 3 3 1 4
7 4 3 1 16
8 4 4 1 16
9 4 5 14 15
10 6 5 16 17
11 6 5 16 18
12 7 6 5 7
13 2 6 5 14
14 6 6 5 16
15 2 7 5 14
16 6 7 5 16
17 4 8 14 15
18 7 9 8 10
19 2 9 8 14
20 7 9 8 20
21 2 10 8 14
22 7 10 8 20
23 4 11 14 15
24 7 12 11 13
25 2 12 11 14
26 7 12 11 19
27 2 13 11 14
28 7 13 11 19
29 2 14 8 20
30 2 14 11 19
31 7 17 16 18
32 1 1 16 5
33 5 5 14 8
34 5 5 14 11
35 5 8 14 11
36 1 14 5 16

Dihedrals

1 1 1 16 5 6
2 1 1 16 5 7
3 1 2 1 16 5
4 1 2 1 16 17
5 1 2 1 16 18
6 1 3 1 16 5
7 1 3 1 16 17
8 1 3 1 16 18
9 1 4 1 16 5
10 1 4 1 16 17
11 1 4 1 16 18
12 1 5 14 8 9
13 1 5 14 8 10
14 1 5 14 8 20
15 1 5 14 11 12
16 1 5 14 11 13
17 1 5 14 11 19
18 1 6 5 14 8
19 1 6 5 14 11
20 1 6 5 14 15
21 1 6 5 16 17
22 1 6 5 16 18
23 1 7 5 14 8
24 1 7 5 14 11
25 1 7 5 14 15
26 1 7 5 16 17
27 1 7 5 16 18
28 1 8 14 11 12
29 1 8 14 11 13
30 1 8 14 11 19
31 1 9 8 14 11
32 1 9 8 14 15
33 1 10 8 14 11
34 1 10 8 14 15
35 1 11 14 8 20
36 1 12 11 14 15
37 1 13 11 14 15
38 1 14 5 16 17
39 1 14 5 16 18
40 1 15 14 5 16
41 1 15 14 8 20
42 1 15 14 11 19
43 1 1 16 5 14
44 1 8 14 5 16
45 1 11 14 5 16

