LAMMPS data file for MOL

20 atoms
19 bonds
36 angles
49 dihedrals
0 impropers

5 atom types
5 bond types
9 angle types
6 dihedral types

-4.107 3.932 xlo xhi
-1.209 1.207 ylo yhi
-0.886 0.886 zlo zhi

Masses

1 14.01
2 12.01
3 1.008
4 1.008
5 1.008

Pair Coeffs

1 0.16999999991766696 3.2499985240310356
2 0.10939999991572773 3.399669508450741
3 0.01570000002623629 2.649532787260222
4 0.015700000062726104 1.9599771790073583
5 0.015700000004219245 1.069078461720523

Bond Coeffs

1 283.3 1.511
2 373.2 1.0304
3 300.9 1.5375
4 330.6 1.0969
5 338.7 1.091

Angle Coeffs

1 64.18 114.21004877574104
2 48.65 108.01004611857184
3 62.86 111.51004761858671
4 46.34 109.80004705760963
5 46.2 110.56004749791872
6 45.85 110.11004701858076
7 39.4 107.5800458769885
8 39.22 109.75004732265974
9 40.58 108.3000464147461

Dihedral Coeffs

1 0.155555556 0 3
2 0.16 0 3
3 0.2 180 1
4 0.25 180 2
5 0.18 0 3
6 0.15 0 3

Atoms

1 0 1 -0.3459139998792688 3.122 -0.2 0.0
2 0 2 -0.015057999978048874 -0.719 0.384 0.0
3 0 2 -0.043702000021951126 0.614 -0.382 0.0
4 0 2 0.010744999972561092 -1.934 -0.552 -0.0
5 0 2 0.024916999994512218 1.798 0.572 -0.0
6 0 2 -0.08953900001646334 -3.262 0.206 0.0
7 0 3 0.027417999978048873 -0.764 1.039 0.878
8 0 3 0.027417999978048873 -0.764 1.039 -0.878
9 0 3 0.03624300000548778 0.659 -1.032 -0.882
10 0 3 0.03624300000548778 0.66 -1.032 0.882
11 0 3 0.025419999999999998 -1.886 -1.209 -0.877
12 0 3 0.025419999999999998 -1.886 -1.209 0.877
13 0 4 0.0977 1.825 1.207 0.886
14 0 4 0.0977 1.825 1.206 -0.886
15 0 3 0.04006600001097556 -4.107 -0.486 -0.0
16 0 3 0.04006600001097556 -3.361 0.843 0.884
17 0 3 0.04006600001097556 -3.361 0.844 -0.883
18 0 5 0.32159800025243795 3.196 -0.802 0.824
19 0 5 0.32159800025243795 3.932 0.426 -0.0
20 0 5 0.32159800025243795 3.196 -0.803 -0.823

Bonds

1 2 1 18
2 2 1 19
3 2 1 20
4 4 2 7
5 4 2 8
6 4 3 9
7 4 3 10
8 4 4 11
9 4 4 12
10 5 5 13
11 5 5 14
12 4 6 15
13 4 6 16
14 4 6 17
15 1 1 5
16 3 2 3
17 3 2 4
18 3 3 5
19 3 4 6

Angles

1 2 1 5 13
2 2 1 5 14
3 4 2 3 9
4 4 2 3 10
5 4 2 4 11
6 4 2 4 12
7 4 3 2 7
8 4 3 2 8
9 5 3 5 13
10 5 3 5 14
11 4 4 2 7
12 4 4 2 8
13 4 4 6 15
14 4 4 6 16
15 4 4 6 17
16 6 5 1 18
17 6 5 1 19
18 6 5 1 20
19 4 5 3 9
20 4 5 3 10
21 4 6 4 11
22 4 6 4 12
23 7 7 2 8
24 7 9 3 10
25 7 11 4 12
26 8 13 5 14
27 7 15 6 16
28 7 15 6 17
29 7 16 6 17
30 9 18 1 19
31 9 18 1 20
32 9 19 1 20
33 1 1 5 3
34 3 2 3 5
35 3 2 4 6
36 3 3 2 4

Dihedrals

1 1 1 5 3 9
2 1 1 5 3 10
3 1 2 3 5 13
4 1 2 3 5 14
5 2 2 4 6 15
6 2 2 4 6 16
7 2 2 4 6 17
8 2 3 2 4 11
9 2 3 2 4 12
10 1 18 1 5 3
11 1 19 1 5 3
12 1 20 1 5 3
13 2 4 2 3 9
14 2 4 2 3 10
15 2 5 3 2 7
16 2 5 3 2 8
17 2 6 4 2 7
18 2 6 4 2 8
19 6 7 2 3 9
20 6 7 2 3 10
21 6 7 2 4 11
22 6 7 2 4 12
23 6 8 2 3 9
24 6 8 2 3 10
25 6 8 2 4 11
26 6 8 2 4 12
27 1 9 3 5 13
28 1 9 3 5 14
29 1 10 3 5 13
30 1 10 3 5 14
31 6 11 4 6 15
32 6 11 4 6 16
33 6 11 4 6 17
34 6 12 4 6 15
35 6 12 4 6 16
36 6 12 4 6 17
37 1 18 1 5 13
38 1 19 1 5 13
39 1 20 1 5 13
40 1 18 1 5 14
41 1 19 1 5 14
42 1 20 1 5 14
43 1 1 5 3 2
44 3 3 2 4 6
45 4 3 2 4 6
46 5 3 2 4 6
47 3 4 2 3 5
48 4 4 2 3 5
49 5 4 2 3 5

