LAMMPS data file for MOL

20 atoms
19 bonds
36 angles
45 dihedrals
0 impropers

5 atom types
5 bond types
9 angle types
2 dihedral types

-2.909 2.599 xlo xhi
-1.657 1.606 ylo yhi
-2.179 2.18 zlo zhi

Masses

1 14.01
2 12.01
3 1.008
4 1.008
5 1.008

Pair Coeffs

1 0.16999999991766696 3.2499985240310356
2 0.10939999991572773 3.399669508450741
3 0.015700000062726104 1.9599771790073583
4 0.01570000002623629 2.649532787260222
5 0.015700000004219245 1.069078461720523

Bond Coeffs

1 283.3 1.511
2 373.2 1.0304
3 300.9 1.5375
4 338.7 1.091
5 330.6 1.0969

Angle Coeffs

1 64.18 114.21004877574104
2 48.65 108.01004611857184
3 46.2 110.56004749791872
4 46.34 109.80004705760963
5 45.85 110.11004701858076
6 62.86 111.51004761858671
7 39.22 109.75004732265974
8 39.4 107.5800458769885
9 40.58 108.3000464147461

Dihedral Coeffs

1 0.155555556 3 0 0.0
2 0.16 3 0 0.0

Atoms

1 0 1 -0.2607720002414624 -2.081 0.049 0.0
2 0 2 0.14820700021402347 0.469 -0.013 0.0
3 0 2 -0.3580370002689013 -0.79 0.87 -0.001
4 0 2 -0.07093700026890129 1.662 0.964 -0.002
5 0 2 -0.07093700026890129 0.517 -0.887 1.267
6 0 2 -0.07093700026890129 0.516 -0.89 -1.265
7 0 3 0.19794099976402538 -0.845 1.501 -0.889
8 0 3 0.19794099976402538 -0.845 1.503 0.886
9 0 4 0.04390399998902443 1.662 1.604 -0.888
10 0 4 0.04390399998902443 1.662 1.606 0.883
11 0 4 0.04390399998902443 2.599 0.405 -0.001
12 0 4 0.04390399998902443 1.461 -1.432 1.312
13 0 4 0.04390399998902443 0.446 -0.289 2.18
14 0 4 0.04390399998902443 -0.268 -1.653 1.294
15 0 4 0.04390399998902443 1.46 -1.435 -1.309
16 0 4 0.04390399998902443 0.444 -0.295 -2.179
17 0 4 0.04390399998902443 -0.269 -1.657 -1.289
18 0 5 0.2974659999012199 -2.132 -0.555 -0.824
19 0 5 0.2974659999012199 -2.909 0.648 0.0
20 0 5 0.2974659999012199 -2.131 -0.553 0.825

Bonds

1 2 1 18
2 2 1 19
3 2 1 20
4 4 3 7
5 4 3 8
6 5 4 9
7 5 4 10
8 5 4 11
9 5 5 12
10 5 5 13
11 5 5 14
12 5 6 15
13 5 6 16
14 5 6 17
15 1 1 3
16 3 2 3
17 3 2 4
18 3 2 5
19 3 2 6

Angles

1 2 1 3 7
2 2 1 3 8
3 3 2 3 7
4 3 2 3 8
5 4 2 4 9
6 4 2 4 10
7 4 2 4 11
8 4 2 5 12
9 4 2 5 13
10 4 2 5 14
11 4 2 6 15
12 4 2 6 16
13 4 2 6 17
14 5 3 1 18
15 5 3 1 19
16 5 3 1 20
17 7 7 3 8
18 8 9 4 10
19 8 9 4 11
20 8 10 4 11
21 8 12 5 13
22 8 12 5 14
23 8 13 5 14
24 8 15 6 16
25 8 15 6 17
26 8 16 6 17
27 9 18 1 19
28 9 18 1 20
29 9 19 1 20
30 1 1 3 2
31 6 3 2 4
32 6 3 2 5
33 6 3 2 6
34 6 4 2 5
35 6 4 2 6
36 6 5 2 6

Dihedrals

1 1 18 1 3 2
2 1 19 1 3 2
3 1 20 1 3 2
4 2 3 2 4 9
5 2 3 2 4 10
6 2 3 2 4 11
7 2 3 2 5 12
8 2 3 2 5 13
9 2 3 2 5 14
10 2 3 2 6 15
11 2 3 2 6 16
12 2 3 2 6 17
13 1 4 2 3 7
14 1 4 2 3 8
15 2 4 2 5 12
16 2 4 2 5 13
17 2 4 2 5 14
18 2 4 2 6 15
19 2 4 2 6 16
20 2 4 2 6 17
21 1 5 2 3 7
22 1 5 2 3 8
23 2 5 2 4 9
24 2 5 2 4 10
25 2 5 2 4 11
26 2 5 2 6 15
27 2 5 2 6 16
28 2 5 2 6 17
29 1 6 2 3 7
30 1 6 2 3 8
31 2 6 2 4 9
32 2 6 2 4 10
33 2 6 2 4 11
34 2 6 2 5 12
35 2 6 2 5 13
36 2 6 2 5 14
37 1 18 1 3 7
38 1 19 1 3 7
39 1 20 1 3 7
40 1 18 1 3 8
41 1 19 1 3 8
42 1 20 1 3 8
43 1 1 3 2 4
44 1 1 3 2 5
45 1 1 3 2 6

