LAMMPS data file for MOL

8 atoms
7 bonds
12 angles
9 dihedrals
0 impropers

4 atom types
3 bond types
4 angle types
1 dihedral types

-1.144 1.088 xlo xhi
-0.943 1.023 ylo yhi
-0.881 0.956 zlo zhi

Masses

1 12.01
2 1.008
3 1.008
4 14.01

Pair Coeffs

1 0.10939999991572773 3.399669508450741
2 0.015700000062726104 1.9599771790073583
3 0.015700000004219245 1.069078461720523
4 0.16999999991766696 3.2499985240310356

Bond Coeffs

1 338.7 1.091
2 283.3 1.511
3 373.2 1.0304

Angle Coeffs

1 45.85 110.11004701858076
2 39.22 109.75004732265974
3 48.65 108.01004611857184
4 40.58 108.3000464147461

Dihedral Coeffs

1 0.155555556 0 3

Atoms

1 0 1 -0.09137200024146239 -0.803 0.0 0.0
2 0 2 0.13217399998902443 -1.144 -0.633 -0.816
3 0 2 0.13217399998902443 -1.144 1.023 -0.14
4 0 2 0.13217399998902443 -1.144 -0.39 0.956
5 0 3 0.31191700004939 1.088 0.36 -0.881
6 0 3 0.31191700004939 1.088 0.583 0.752
7 0 3 0.31191700004939 1.088 -0.943 0.129
8 0 4 -0.24090199974756205 0.712 -0.0 -0.0

Bonds

1 1 1 2
2 1 1 3
3 1 1 4
4 3 5 8
5 3 6 8
6 3 7 8
7 2 1 8

Angles

1 1 1 8 5
2 1 1 8 6
3 1 1 8 7
4 2 2 1 3
5 2 2 1 4
6 3 2 1 8
7 2 3 1 4
8 3 3 1 8
9 3 4 1 8
10 4 5 8 6
11 4 5 8 7
12 4 6 8 7

Dihedrals

1 1 2 1 8 5
2 1 2 1 8 6
3 1 2 1 8 7
4 1 3 1 8 5
5 1 3 1 8 6
6 1 3 1 8 7
7 1 4 1 8 5
8 1 4 1 8 6
9 1 4 1 8 7

