LAMMPS data file for MOL

8 atoms
7 bonds
12 angles
9 dihedrals
0 impropers

4 atom types
3 bond types
4 angle types
1 dihedral types

-0.904 0.979 xlo xhi
-0.915 0.993 ylo yhi
-1.103 1.16 zlo zhi

Masses

1 12.01
2 1.008
3 1.008
4 14.01

Pair Coeffs

1 0.10939999991572773 3.399669508450741
2 0.015700000004219245 1.069078461720523
3 0.015700000062726104 1.9599771790073583
4 0.16999999991766696 3.2499985240310356

Bond Coeffs

1 338.7 1.091
2 283.3 1.511
3 373.2 1.0304

Angle Coeffs

1 45.85 110.11004701858076
2 40.58 108.3000464147461
3 39.22 109.75004732265974
4 48.65 108.01004611857184

Dihedral Coeffs

1 0.155555556 0 3

Atoms

1 0 1 -0.07356900007134115 0.0 -0.013 0.803
2 0 2 0.3151080000878045 0.711 0.65 -1.078
3 0 2 0.3151080000878045 -0.904 0.317 -1.083
4 0 2 0.3151080000878045 0.192 -0.915 -1.103
5 0 3 0.12855799981341542 -0.772 -0.703 1.133
6 0 3 0.12855799981341542 -0.206 0.993 1.16
7 0 3 0.12855799981341542 0.979 -0.345 1.139
8 0 4 -0.2574290001810968 -0.0 0.011 -0.712

Bonds

1 1 1 5
2 1 1 6
3 1 1 7
4 3 2 8
5 3 3 8
6 3 4 8
7 2 1 8

Angles

1 1 1 8 2
2 1 1 8 3
3 1 1 8 4
4 2 2 8 3
5 2 2 8 4
6 2 3 8 4
7 3 5 1 6
8 3 5 1 7
9 4 5 1 8
10 3 6 1 7
11 4 6 1 8
12 4 7 1 8

Dihedrals

1 1 5 1 8 2
2 1 6 1 8 2
3 1 7 1 8 2
4 1 5 1 8 3
5 1 6 1 8 3
6 1 7 1 8 3
7 1 5 1 8 4
8 1 6 1 8 4
9 1 7 1 8 4

