LAMMPS data file for MOL

21 atoms
21 bonds
36 angles
54 dihedrals
0 impropers

7 atom types
8 bond types
13 angle types
4 dihedral types

-4.203 3.93 xlo xhi
-2.153 2.153 ylo yhi
-1.161 1.331 zlo zhi

Masses

1 14.01
2 12.01
3 12.01
4 1.008
5 1.008
6 1.008
7 1.008

Pair Coeffs

1 0.16999999991766696 3.2499985240310356
2 0.10939999991572773 3.399669508450741
3 0.08600000012835884 3.399669507944831
4 0.01570000002623629 2.649532787260222
5 0.015700000062726104 1.9599771790073583
6 0.015700000004219245 1.069078461720523
7 0.015000000064220668 2.5996424587350853

Bond Coeffs

1 283.3 1.511
2 373.2 1.0304
3 300.9 1.5375
4 321.0 1.5156
5 330.6 1.0969
6 338.7 1.091
7 461.1 1.3984
8 345.8 1.086

Angle Coeffs

1 64.18 114.21004877574104
2 48.65 108.01004611857184
3 46.2 110.56004749791872
4 63.53 120.77005170178906
5 45.85 110.11004701858076
6 63.15 112.07004797318065
7 46.34 109.80004705760963
8 46.8 110.47004728745955
9 66.62 120.0200516668362
10 48.18 119.88005114846936
11 39.4 107.5800458769885
12 39.22 109.75004732265974
13 40.58 108.3000464147461

Dihedral Coeffs

1 0.155555556 3 0 0.0
2 3.625 2 180 0.0
3 0.0 2 0 0.0
4 1.1 2 180 0.0

Atoms

1 0 1 -0.19340700021402346 -3.637 -0.0 -0.243
2 0 2 -0.18782199996707333 -1.305 0.0 0.729
3 0 2 -0.016007999978048873 -2.134 0.0 -0.553
4 0 3 0.07794799997804887 0.172 0.0 0.383
5 0 3 -0.13165799981341544 0.856 -1.206 0.207
6 0 3 -0.13165799981341544 0.856 1.206 0.207
7 0 3 -0.14940999983536654 2.204 -1.206 -0.141
8 0 3 -0.14940999983536654 2.204 1.206 -0.141
9 0 3 -0.061281000203047914 2.879 -0.0 -0.318
10 0 4 0.09664200018658456 -1.549 0.882 1.331
11 0 4 0.09664200018658456 -1.549 -0.882 1.331
12 0 5 0.09986099998353665 -1.951 0.886 -1.161
13 0 5 0.09986099998353665 -1.951 -0.886 -1.161
14 0 6 0.2845460002304868 -4.203 -0.001 -1.095
15 0 6 0.2845460002304868 -3.901 0.824 0.303
16 0 6 0.2845460002304868 -3.9 -0.823 0.305
17 0 7 0.12629699982987877 0.344 -2.153 0.361
18 0 7 0.12629699982987877 0.344 2.153 0.361
19 0 7 0.1522059997914643 2.729 -2.147 -0.265
20 0 7 0.1522059997914643 2.729 2.147 -0.265
21 0 7 0.1390560000658534 3.93 -0.0 -0.584

Bonds

1 2 1 14
2 2 1 15
3 2 1 16
4 5 2 10
5 5 2 11
6 6 3 12
7 6 3 13
8 8 5 17
9 8 6 18
10 8 7 19
11 8 8 20
12 8 9 21
13 1 1 3
14 3 2 3
15 4 2 4
16 7 4 5
17 7 4 6
18 7 5 7
19 7 6 8
20 7 7 9
21 7 8 9

Angles

1 2 1 3 12
2 2 1 3 13
3 3 2 3 12
4 3 2 3 13
5 5 3 1 14
6 5 3 1 15
7 5 3 1 16
8 7 3 2 10
9 7 3 2 11
10 8 4 2 10
11 8 4 2 11
12 10 4 5 17
13 10 4 6 18
14 10 5 7 19
15 10 6 8 20
16 10 7 5 17
17 10 7 9 21
18 10 8 6 18
19 10 8 9 21
20 10 9 7 19
21 10 9 8 20
22 11 10 2 11
23 12 12 3 13
24 13 14 1 15
25 13 14 1 16
26 13 15 1 16
27 1 1 3 2
28 4 2 4 5
29 4 2 4 6
30 6 3 2 4
31 9 4 5 7
32 9 4 6 8
33 9 5 4 6
34 9 5 7 9
35 9 6 8 9
36 9 7 9 8

Dihedrals

1 1 1 3 2 10
2 1 1 3 2 11
3 1 14 1 3 2
4 1 15 1 3 2
5 1 16 1 3 2
6 2 2 4 5 17
7 2 2 4 6 18
8 1 4 2 3 12
9 1 4 2 3 13
10 2 4 5 7 19
11 2 4 6 8 20
12 3 5 4 2 10
13 3 5 4 2 11
14 2 5 4 6 18
15 2 5 7 9 21
16 3 6 4 2 10
17 3 6 4 2 11
18 2 6 4 5 17
19 2 6 8 9 21
20 2 7 9 8 20
21 2 8 9 7 19
22 2 9 7 5 17
23 2 9 8 6 18
24 1 10 2 3 12
25 1 10 2 3 13
26 1 11 2 3 12
27 1 11 2 3 13
28 1 14 1 3 12
29 1 15 1 3 12
30 1 16 1 3 12
31 1 14 1 3 13
32 1 15 1 3 13
33 1 16 1 3 13
34 2 17 5 7 19
35 2 18 6 8 20
36 2 19 7 9 21
37 2 20 8 9 21
38 4 4 7 5 17
39 4 4 8 6 18
40 4 5 9 7 19
41 4 6 9 8 20
42 4 7 8 9 21
43 1 1 3 2 4
44 2 2 4 5 7
45 2 2 4 6 8
46 3 3 2 4 5
47 3 3 2 4 6
48 2 4 5 7 9
49 2 4 6 8 9
50 2 5 4 6 8
51 2 5 7 9 8
52 2 6 4 5 7
53 2 6 8 9 7
54 4 5 6 4 2

