LAMMPS data file for MOL

17 atoms
16 bonds
30 angles
36 dihedrals
0 impropers

4 atom types
4 bond types
6 angle types
2 dihedral types

-1.825 2.037 xlo xhi
-2.16 2.184 ylo yhi
-1.626 1.847 zlo zhi

Masses

1 14.01
2 12.01
3 1.008
4 1.008

Pair Coeffs

1 0.16999999991766696 3.2499985240310356
2 0.10939999991572773 3.399669508450741
3 0.015700000004219245 1.069078461720523
4 0.01570000002623629 2.649532787260222

Bond Coeffs

1 283.3 1.511
2 373.2 1.0304
3 300.9 1.5375
4 330.6 1.0969

Angle Coeffs

1 64.18 114.21004877574104
2 45.85 110.11004701858076
3 46.34 109.80004705760963
4 62.86 111.51004761858671
5 40.58 108.3000464147461
6 39.4 107.5800458769885

Dihedral Coeffs

1 0.155555556 3 0 0.0
2 0.16 3 0 0.0

Atoms

1 0 1 -0.5817409986664691 -0.008 -0.014 1.467
2 0 2 0.28127999978048873 0.001 0.001 -0.094
3 0 2 -0.4200799997804887 -0.788 -1.23 -0.536
4 0 2 -0.4200799997804887 -0.671 1.307 -0.512
5 0 2 -0.4200799997804887 1.468 -0.063 -0.513
6 0 3 0.3705290001810968 0.43 -0.863 1.831
7 0 3 0.3705290001810968 -0.963 0.024 1.832
8 0 3 0.3705290001810968 0.502 0.787 1.847
9 0 4 0.1610130000054878 -1.825 -1.201 -0.19
10 0 4 0.1610130000054878 -0.813 -1.266 -1.626
11 0 4 0.1610130000054878 -0.327 -2.16 -0.193
12 0 4 0.1610130000054878 -0.128 2.184 -0.149
13 0 4 0.1610130000054878 -1.708 1.366 -0.168
14 0 4 0.1610130000054878 -0.69 1.368 -1.601
15 0 4 0.1610130000054878 1.957 -0.978 -0.167
16 0 4 0.1610130000054878 1.529 -0.057 -1.602
17 0 4 0.1610130000054878 2.037 0.799 -0.153

Bonds

1 2 1 6
2 2 1 7
3 2 1 8
4 4 3 9
5 4 3 10
6 4 3 11
7 4 4 12
8 4 4 13
9 4 4 14
10 4 5 15
11 4 5 16
12 4 5 17
13 1 1 2
14 3 2 3
15 3 2 4
16 3 2 5

Angles

1 2 2 1 6
2 2 2 1 7
3 2 2 1 8
4 3 2 3 9
5 3 2 3 10
6 3 2 3 11
7 3 2 4 12
8 3 2 4 13
9 3 2 4 14
10 3 2 5 15
11 3 2 5 16
12 3 2 5 17
13 5 6 1 7
14 5 6 1 8
15 5 7 1 8
16 6 9 3 10
17 6 9 3 11
18 6 10 3 11
19 6 12 4 13
20 6 12 4 14
21 6 13 4 14
22 6 15 5 16
23 6 15 5 17
24 6 16 5 17
25 1 1 2 3
26 1 1 2 4
27 1 1 2 5
28 4 3 2 4
29 4 3 2 5
30 4 4 2 5

Dihedrals

1 1 1 2 3 9
2 1 1 2 3 10
3 1 1 2 3 11
4 1 1 2 4 12
5 1 1 2 4 13
6 1 1 2 4 14
7 1 1 2 5 15
8 1 1 2 5 16
9 1 1 2 5 17
10 1 6 1 2 3
11 1 7 1 2 3
12 1 8 1 2 3
13 2 3 2 4 12
14 2 3 2 4 13
15 2 3 2 4 14
16 2 3 2 5 15
17 2 3 2 5 16
18 2 3 2 5 17
19 1 6 1 2 4
20 1 7 1 2 4
21 1 8 1 2 4
22 2 4 2 3 9
23 2 4 2 3 10
24 2 4 2 3 11
25 2 4 2 5 15
26 2 4 2 5 16
27 2 4 2 5 17
28 1 6 1 2 5
29 1 7 1 2 5
30 1 8 1 2 5
31 2 5 2 3 9
32 2 5 2 3 10
33 2 5 2 3 11
34 2 5 2 4 12
35 2 5 2 4 13
36 2 5 2 4 14

