LAMMPS data file for MOL

21 atoms
21 bonds
36 angles
54 dihedrals
0 impropers

7 atom types
8 bond types
13 angle types
4 dihedral types

-3.592 3.479 xlo xhi
-2.219 2.276 ylo yhi
-1.874 1.738 zlo zhi

Masses

1 1.008
2 12.01
3 12.01
4 1.008
5 1.008
6 14.01
7 1.008

Pair Coeffs

1 0.015000000064220668 2.5996424587350853
2 0.08600000012835884 3.399669507944831
3 0.10939999991572773 3.399669508450741
4 0.01570000002623629 2.649532787260222
5 0.015700000062726104 1.9599771790073583
6 0.16999999991766696 3.2499985240310356
7 0.015700000004219245 1.069078461720523

Bond Coeffs

1 345.8 1.086
2 461.1 1.3984
3 321.0 1.5156
4 330.6 1.0969
5 300.9 1.5375
6 338.7 1.091
7 283.3 1.511
8 373.2 1.0304

Angle Coeffs

1 48.18 119.88005114846936
2 66.62 120.0200516668362
3 63.53 120.77005170178906
4 46.8 110.47004728745955
5 63.15 112.07004797318065
6 46.2 110.56004749791872
7 64.18 114.21004877574104
8 39.4 107.5800458769885
9 46.34 109.80004705760963
10 45.85 110.11004701858076
11 39.22 109.75004732265974
12 48.65 108.01004611857184
13 40.58 108.3000464147461

Dihedral Coeffs

1 3.625 180 2
2 0.0 0 2
3 0.155555556 0 3
4 1.1 180 2

Atoms

1 0 1 0.13554499980792764 -0.053 -1.856 1.129
2 0 2 -0.21160199974756205 -0.577 -1.037 0.64
3 0 2 -0.12496199985731767 -1.994 1.078 -0.486
4 0 2 0.2252290001810968 0.024 0.227 0.555
5 0 2 -0.12496199985731767 -1.873 -1.241 0.165
6 0 2 -0.07828100020304792 -2.581 -0.185 -0.401
7 0 2 -0.21160199974756205 -0.701 1.282 -0.014
8 0 1 0.15690899996158553 -2.333 -2.219 0.256
9 0 1 0.1444219999670733 -3.592 -0.339 -0.761
10 0 1 0.13554499980792764 -0.264 2.276 -0.065
11 0 1 0.15690899996158553 -2.55 1.907 -0.909
12 0 3 -0.3173409997640254 1.449 0.437 1.027
13 0 4 0.15771100025792573 1.742 -0.343 1.738
14 0 4 0.15771100025792573 1.554 1.387 1.559
15 0 3 -0.14363099992865883 2.437 0.473 -0.142
16 0 5 0.1575919999121955 3.479 0.523 0.173
17 0 5 0.1575919999121955 2.227 1.301 -0.819
18 0 6 -0.10749599995609774 2.284 -0.792 -0.978
19 0 7 0.24490400004390225 2.771 -0.731 -1.874
20 0 7 0.24490400004390225 1.282 -0.953 -1.153
21 0 7 0.24490400004390225 2.639 -1.614 -0.484

Bonds

1 1 1 2
2 1 3 11
3 1 5 8
4 1 6 9
5 1 7 10
6 4 12 13
7 4 12 14
8 6 15 16
9 6 15 17
10 8 18 19
11 8 18 20
12 8 18 21
13 2 2 4
14 2 2 5
15 2 3 6
16 2 3 7
17 2 4 7
18 3 4 12
19 2 5 6
20 5 12 15
21 7 15 18

Angles

1 1 1 2 4
2 1 1 2 5
3 1 2 5 8
4 1 3 6 9
5 1 3 7 10
6 1 4 7 10
7 4 4 12 13
8 4 4 12 14
9 1 5 6 9
10 1 6 3 11
11 1 6 5 8
12 1 7 3 11
13 6 12 15 16
14 6 12 15 17
15 8 13 12 14
16 9 13 12 15
17 9 14 12 15
18 10 15 18 19
19 10 15 18 20
20 10 15 18 21
21 11 16 15 17
22 12 16 15 18
23 12 17 15 18
24 13 19 18 20
25 13 19 18 21
26 13 20 18 21
27 2 2 4 7
28 3 2 4 12
29 2 2 5 6
30 2 3 6 5
31 2 3 7 4
32 2 4 2 5
33 5 4 12 15
34 2 6 3 7
35 3 7 4 12
36 7 12 15 18

Dihedrals

1 1 1 2 4 7
2 1 1 2 4 12
3 1 1 2 5 6
4 1 1 2 5 8
5 1 2 4 7 10
6 2 2 4 12 13
7 2 2 4 12 14
8 1 2 5 6 9
9 1 3 6 5 8
10 1 4 2 5 8
11 1 4 7 3 11
12 3 4 12 15 16
13 3 4 12 15 17
14 1 5 6 3 11
15 1 6 3 7 10
16 1 7 3 6 9
17 2 7 4 12 13
18 2 7 4 12 14
19 1 8 5 6 9
20 1 9 6 3 11
21 1 10 7 3 11
22 1 10 7 4 12
23 3 12 15 18 19
24 3 12 15 18 20
25 3 12 15 18 21
26 3 13 12 15 16
27 3 13 12 15 17
28 3 13 12 15 18
29 3 14 12 15 16
30 3 14 12 15 17
31 3 14 12 15 18
32 3 16 15 18 19
33 3 16 15 18 20
34 3 16 15 18 21
35 3 17 15 18 19
36 3 17 15 18 20
37 3 17 15 18 21
38 4 1 2 5 4
39 4 6 7 3 11
40 4 2 6 5 8
41 4 3 5 6 9
42 4 3 4 7 10
43 1 2 4 7 3
44 2 2 4 12 15
45 1 2 5 6 3
46 1 3 7 4 12
47 1 4 2 5 6
48 1 4 7 3 6
49 3 4 12 15 18
50 1 5 2 4 7
51 1 5 2 4 12
52 1 5 6 3 7
53 2 7 4 12 15
54 4 2 7 4 12

