LAMMPS data file for MOL

24 atoms
24 bonds
42 angles
63 dihedrals
0 impropers

7 atom types
8 bond types
14 angle types
6 dihedral types

-4.366 5.1 xlo xhi
-2.15 2.15 ylo yhi
-1.391 1.631 zlo zhi

Masses

1 14.01
2 1.008
3 12.01
4 1.008
5 12.01
6 1.008
7 1.008

Pair Coeffs

1 0.16999999991766696 3.2499985240310356
2 0.015700000004219245 1.069078461720523
3 0.10939999991572773 3.399669508450741
4 0.015700000062726104 1.9599771790073583
5 0.08600000012835884 3.399669507944831
6 0.015000000064220668 2.5996424587350853
7 0.01570000002623629 2.649532787260222

Bond Coeffs

1 373.2 1.0304
2 283.3 1.511
3 338.7 1.091
4 300.9 1.5375
5 461.1 1.3984
6 321.0 1.5156
7 345.8 1.086
8 330.6 1.0969

Angle Coeffs

1 48.65 108.01004611857184
2 64.18 114.21004877574104
3 40.58 108.3000464147461
4 45.85 110.11004701858076
5 62.86 111.51004761858671
6 46.34 109.80004705760963
7 39.22 109.75004732265974
8 46.2 110.56004749791872
9 48.18 119.88005114846936
10 66.62 120.0200516668362
11 63.15 112.07004797318065
12 46.8 110.47004728745955
13 63.53 120.77005170178906
14 39.4 107.5800458769885

Dihedral Coeffs

1 0.155555556 0 3
2 0.16 0 3
3 3.625 180 2
4 0.0 0 2
5 0.15 0 3
6 1.1 180 2

Atoms

1 0 1 -0.28271399987926876 4.13 0.0 -0.796
2 0 2 0.3030089999615855 5.1 -0.001 -0.471
3 0 2 0.3030089999615855 4.0 -0.822 -1.391
4 0 2 0.3030089999615855 4.001 0.824 -1.389
5 0 3 0.04557300000548778 3.132 -0.0 0.365
6 0 4 0.08498899974207427 3.363 0.885 0.958
7 0 4 0.08498899974207427 3.363 -0.887 0.956
8 0 5 0.04127900001646335 -0.745 0.0 0.483
9 0 5 -0.12168200007682893 -1.408 -1.204 0.226
10 0 6 0.11779500008231672 -0.917 -2.15 0.441
11 0 5 -0.15415600006585337 -2.704 -1.205 -0.284
12 0 6 0.14019400020853567 -3.21 -2.147 -0.469
13 0 5 -0.05124699999451222 -3.354 -0.0 -0.542
14 0 6 0.12311100025792572 -4.366 -0.0 -0.932
15 0 5 -0.15415600006585337 -2.704 1.205 -0.284
16 0 6 0.14019400020853567 -3.21 2.147 -0.469
17 0 5 -0.12168200007682893 -1.408 1.204 0.226
18 0 6 0.11779500008231672 -0.917 2.15 0.441
19 0 3 -0.009912000021951126 1.703 -0.0 -0.156
20 0 3 -0.08010899996158552 0.678 0.0 1.0
21 0 7 0.058586999994512216 0.846 0.879 1.631
22 0 7 0.058586999994512216 0.846 -0.878 1.631
23 0 7 0.026769000016463346 1.53 0.881 -0.784
24 0 7 0.026769000016463346 1.53 -0.882 -0.784

Bonds

1 1 1 2
2 1 1 3
3 1 1 4
4 3 5 6
5 3 5 7
6 7 9 10
7 7 11 12
8 7 13 14
9 7 15 16
10 7 17 18
11 8 19 23
12 8 19 24
13 8 20 21
14 8 20 22
15 2 1 5
16 4 5 19
17 5 8 9
18 5 8 17
19 6 8 20
20 5 9 11
21 5 11 13
22 5 13 15
23 5 15 17
24 4 19 20

Angles

1 1 1 5 6
2 1 1 5 7
3 3 2 1 3
4 3 2 1 4
5 4 2 1 5
6 3 3 1 4
7 4 3 1 5
8 4 4 1 5
9 6 5 19 23
10 6 5 19 24
11 7 6 5 7
12 8 6 5 19
13 8 7 5 19
14 9 8 9 10
15 9 8 17 18
16 12 8 20 21
17 12 8 20 22
18 9 9 11 12
19 9 10 9 11
20 9 11 13 14
21 9 12 11 13
22 9 13 15 16
23 9 14 13 15
24 9 15 17 18
25 9 16 15 17
26 6 19 20 21
27 6 19 20 22
28 6 20 19 23
29 6 20 19 24
30 14 21 20 22
31 14 23 19 24
32 2 1 5 19
33 5 5 19 20
34 10 8 9 11
35 10 8 17 15
36 11 8 20 19
37 10 9 8 17
38 13 9 8 20
39 10 9 11 13
40 10 11 13 15
41 10 13 15 17
42 13 17 8 20

Dihedrals

1 1 1 5 19 23
2 1 1 5 19 24
3 1 2 1 5 6
4 1 2 1 5 7
5 1 2 1 5 19
6 1 3 1 5 6
7 1 3 1 5 7
8 1 3 1 5 19
9 1 4 1 5 6
10 1 4 1 5 7
11 1 4 1 5 19
12 2 5 19 20 21
13 2 5 19 20 22
14 1 6 5 19 20
15 1 6 5 19 23
16 1 6 5 19 24
17 1 7 5 19 20
18 1 7 5 19 23
19 1 7 5 19 24
20 3 8 9 11 12
21 3 8 17 15 16
22 1 8 20 19 23
23 1 8 20 19 24
24 3 9 8 17 18
25 4 9 8 20 21
26 4 9 8 20 22
27 3 9 11 13 14
28 3 10 9 8 17
29 3 10 9 8 20
30 3 10 9 11 12
31 3 10 9 11 13
32 3 11 13 15 16
33 3 12 11 13 14
34 3 12 11 13 15
35 3 13 15 17 18
36 3 14 13 15 16
37 3 14 13 15 17
38 3 16 15 17 18
39 4 17 8 20 21
40 4 17 8 20 22
41 3 18 17 8 20
42 5 21 20 19 23
43 5 21 20 19 24
44 5 22 20 19 23
45 5 22 20 19 24
46 6 8 11 9 10
47 6 9 13 11 12
48 6 11 15 13 14
49 6 13 17 15 16
50 6 8 15 17 18
51 1 1 5 19 20
52 1 5 19 20 8
53 3 8 9 11 13
54 3 8 17 15 13
55 3 9 8 17 15
56 4 9 8 20 19
57 3 9 11 13 15
58 3 11 9 8 17
59 3 11 9 8 20
60 3 11 13 15 17
61 3 15 17 8 20
62 4 17 8 20 19
63 6 9 17 8 20

