LAMMPS data file for MOL

17 atoms
16 bonds
30 angles
36 dihedrals
0 impropers

5 atom types
5 bond types
9 angle types
3 dihedral types

-2.799 2.66 xlo xhi
-1.819 2.095 ylo yhi
-1.435 1.361 zlo zhi

Masses

1 12.01
2 14.01
3 1.008
4 1.008
5 1.008

Pair Coeffs

1 0.10939999991572773 3.399669508450741
2 0.16999999991766696 3.2499985240310356
3 0.01570000002623629 2.649532787260222
4 0.015700000062726104 1.9599771790073583
5 0.015700000004219245 1.069078461720523

Bond Coeffs

1 300.9 1.5375
2 330.6 1.0969
3 283.3 1.511
4 338.7 1.091
5 373.2 1.0304

Angle Coeffs

1 64.18 114.21004877574104
2 46.2 110.56004749791872
3 46.34 109.80004705760963
4 62.86 111.51004761858671
5 45.85 110.11004701858076
6 48.65 108.01004611857184
7 39.22 109.75004732265974
8 39.4 107.5800458769885
9 40.58 108.3000464147461

Dihedral Coeffs

1 0.155555556 0 3
2 0.16 0 3
3 0.15 0 3

Atoms

1 0 1 0.04692900001646334 0.521 0.007 -0.343
2 0 1 -0.22036000010975562 -0.675 -0.722 0.27
3 0 1 -0.1527860001207312 0.622 1.466 0.127
4 0 1 -0.1527860001207312 1.792 -0.785 0.004
5 0 2 -0.3101860001207312 -1.998 -0.044 -0.092
6 0 3 0.07273300022499904 0.405 -0.008 -1.435
7 0 4 0.1697240002634135 -0.761 -1.749 -0.085
8 0 4 0.1697240002634135 -0.635 -0.728 1.361
9 0 3 0.0727759997365865 1.519 1.931 -0.282
10 0 3 0.0727759997365865 -0.213 2.095 -0.203
11 0 3 0.0727759997365865 0.693 1.533 1.217
12 0 3 0.0727759997365865 1.738 -1.819 -0.345
13 0 3 0.0727759997365865 2.66 -0.324 -0.469
14 0 3 0.0727759997365865 1.973 -0.797 1.083
15 0 5 0.3134500002743891 -2.015 0.924 0.239
16 0 5 0.3134500002743891 -2.135 -0.021 -1.106
17 0 5 0.3134500002743891 -2.799 -0.529 0.318

Bonds

1 2 1 6
2 4 2 7
3 4 2 8
4 2 3 9
5 2 3 10
6 2 3 11
7 2 4 12
8 2 4 13
9 2 4 14
10 5 5 15
11 5 5 16
12 5 5 17
13 1 1 2
14 1 1 3
15 1 1 4
16 3 2 5

Angles

1 2 1 2 7
2 2 1 2 8
3 3 1 3 9
4 3 1 3 10
5 3 1 3 11
6 3 1 4 12
7 3 1 4 13
8 3 1 4 14
9 3 2 1 6
10 5 2 5 15
11 5 2 5 16
12 5 2 5 17
13 3 3 1 6
14 3 4 1 6
15 6 5 2 7
16 6 5 2 8
17 7 7 2 8
18 8 9 3 10
19 8 9 3 11
20 8 10 3 11
21 8 12 4 13
22 8 12 4 14
23 8 13 4 14
24 9 15 5 16
25 9 15 5 17
26 9 16 5 17
27 1 1 2 5
28 4 2 1 3
29 4 2 1 4
30 4 3 1 4

Dihedrals

1 1 1 2 5 15
2 1 1 2 5 16
3 1 1 2 5 17
4 2 2 1 3 9
5 2 2 1 3 10
6 2 2 1 3 11
7 2 2 1 4 12
8 2 2 1 4 13
9 2 2 1 4 14
10 1 3 1 2 7
11 1 3 1 2 8
12 2 3 1 4 12
13 2 3 1 4 13
14 2 3 1 4 14
15 1 4 1 2 7
16 1 4 1 2 8
17 2 4 1 3 9
18 2 4 1 3 10
19 2 4 1 3 11
20 1 6 1 2 5
21 1 6 1 2 7
22 1 6 1 2 8
23 3 6 1 3 9
24 3 6 1 3 10
25 3 6 1 3 11
26 3 6 1 4 12
27 3 6 1 4 13
28 3 6 1 4 14
29 1 7 2 5 15
30 1 7 2 5 16
31 1 7 2 5 17
32 1 8 2 5 15
33 1 8 2 5 16
34 1 8 2 5 17
35 1 3 1 2 5
36 1 4 1 2 5

